   Random configuration 

        2000     atoms
           2   atom types

 0      43.0886993            xlo xhi
 0      43.0886993            ylo yhi
 0      43.0886993            zlo zhi

  Atoms

           1           1   16.6576443       28.3897438       17.6110706    
           2           1   5.16380072       12.2745619       2.32146025    
           3           1   41.3340378       15.8831644       39.2361450    
           4           1   23.4456329       15.5772543       25.8617420    
           5           1   40.6184235       13.0852928       28.0567741    
           6           1   28.5683613       27.5446777       31.1645756    
           7           1   10.5755930       42.8253899       16.4347897    
           8           1   32.5052109       37.7354927       22.1119156    
           9           1   14.4134464       25.7450027       40.0587540    
          10           1   25.6611900       10.9893894       20.0800667    
          11           1   14.9308681       12.4008226       30.1322899    
          12           1   1.10311115       10.2051277       13.0703878    
          13           1   11.8815041       26.3914108       3.65355086    
          14           1   20.4779053       22.1178055       7.59865093    
          15           1   17.5005417       12.1145620       26.8650627    
          16           1   27.8533783       12.3087435       22.3506584    
          17           1   30.1614761       25.7063828       28.8485928    
          18           1   11.5412951       39.2801514       6.44345999    
          19           1   24.8731880       19.6638107       2.04489040    
          20           1   4.01131821       29.7960033       27.7506714    
          21           1   2.35412359       26.6379967       35.0543022    
          22           1   41.1282578       1.39174938       4.44899273    
          23           1   12.8512449       38.7247200       32.9167252    
          24           1   36.0386963       37.2709999       4.33852291    
          25           1   4.92228460       23.5630226       9.19063759    
          26           1   26.2271633       23.8225174       5.73446655    
          27           1   18.6104031       23.0293064       35.1017799    
          28           1   17.7515965       4.55866766       18.3074455    
          29           1   16.2770863       16.3597908       21.2471886    
          30           1   38.2820663       31.7994461       7.70715475    
          31           1   2.93374729       6.58319044       1.51091146    
          32           1   26.9016933       39.9630241       37.0684967    
          33           1   7.41193628       28.6612778       36.6812706    
          34           1   33.3447838       40.7545052       31.4682465    
          35           1   7.47404909       22.6593132       31.4053288    
          36           1   6.87247324       15.9565487       6.88517570    
          37           1   14.0242271       21.3586121       32.5577545    
          38           1   6.85912800       3.04094005       12.6234674    
          39           1   36.6570854       35.7562408       10.0435619    
          40           1   5.38387871       40.2819519       25.3478432    
          41           1   4.96050310       16.2851048       18.7740040    
          42           1   7.90823221       37.8309135       17.3593693    
          43           1   28.4735470       32.5957031       39.8884583    
          44           1   36.5152168       33.0296860       13.9650583    
          45           1   1.17163825       12.2465296       24.6258984    
          46           1   21.6752453       13.8972092       22.5664062    
          47           1   34.8562012       31.1215420       11.0652637    
          48           1   2.33895397       27.4513512       41.0486374    
          49           1   13.1783466       37.2514000       43.0491829    
          50           1   31.5905418       11.3209057       21.7952652    
          51           1   2.26587081       28.4231911       6.64955616    
          52           1   13.3981762       22.8695374       39.3802567    
          53           1   4.51546907       12.6290054       19.0157700    
          54           1   28.7214565       34.6198730       6.90684700    
          55           1   29.1720009      0.613430142       43.0758018    
          56           1   39.3788338       30.9152012       10.7049818    
          57           1   13.8946209       40.3406334       19.3146667    
          58           1   22.3195705       39.3236732       35.0088921    
          59           1   20.1331978       21.3701839       13.8907299    
          60           1   5.68935585       11.4082260       41.0019455    
          61           1   39.4892769       13.3522139       39.8116035    
          62           1   2.02865243       11.3863287       16.9443226    
          63           1   9.62037563       41.9962502       37.1580734    
          64           1   19.8725967       5.45268679       2.92693758    
          65           1   3.81173801       18.3005219       1.28982949    
          66           1   30.5065708       10.7934971       3.94075847    
          67           1   8.97533989       17.5718098       24.2865257    
          68           1   19.0238323       20.9254131       1.29241323    
          69           1   31.7264347       24.7124844       32.8012161    
          70           1   11.2619209       20.4452515       10.7863464    
          71           1   40.6456833       5.11252403       10.9936008    
          72           1   10.0014629       22.3715687       27.9379101    
          73           1   40.8085938       4.73087263       15.0953178    
          74           1   1.34733605       30.7405510       23.6109524    
          75           1   8.81156540       35.8824043       2.58489323    
          76           1   38.2007561       25.4307842       13.5051966    
          77           1   41.6596642       8.19648552       22.3556309    
          78           1   12.5700569       34.3918839      0.940397382    
          79           1   7.05618143       30.3312531       20.0151806    
          80           1   13.9565115       25.0773506       31.2000046    
          81           1   1.24457633       42.5844917       7.31280041    
          82           1   24.2532673       32.7645988       42.8515396    
          83           1   34.6196823       15.5976982       4.89732838    
          84           1   17.8250504       2.78483939       1.83217454    
          85           1   25.0542736       31.5655937       2.13898730    
          86           1   31.4460182       17.5467758       5.05977011    
          87           1  0.555551231       39.2453156       20.2908859    
          88           1   40.2364464       42.5668030       18.4407654    
          89           1   27.6851902       28.9266586       41.7191734    
          90           1   21.7886448       25.0163746       41.3140907    
          91           1   11.1442108       17.7665901       4.83338165    
          92           1   10.7655792       29.2514553       17.5405045    
          93           1   24.7602253       25.3896198       26.1887054    
          94           1   10.5536852       4.07499266       26.2885036    
          95           1   36.3868599       13.2970734       14.9766712    
          96           1   40.4081268       7.68043423       14.9075289    
          97           1  0.991106927       5.05349064       33.1483650    
          98           1   5.17904234       2.89450002       39.9665871    
          99           1   1.47419393       2.63292003       18.9101562    
         100           1   3.06325698       32.1568947       16.1760139    
         101           1   36.8522339       38.9196968       35.1974792    
         102           1   32.4458618       23.7053261       20.7028255    
         103           1   34.9009933       20.5290337       9.19444180    
         104           1   42.7152252       34.9211960       4.53828430    
         105           1   8.76205921       10.5004711       3.76675200    
         106           1   8.27284050       1.79283869       26.2145748    
         107           1   36.8530998       22.6094227       15.7387486    
         108           1   2.45270348       29.6310215       29.8699589    
         109           1   15.3464060       41.5181808       29.7302952    
         110           1   34.5336609       9.67265415       26.1589909    
         111           1   4.51701021       28.2475719       9.26712799    
         112           1   7.59994793       14.2969017       9.05577087    
         113           1   42.5836372       15.5813217       23.5806942    
         114           1   13.5091000       2.25017357       11.6971836    
         115           1   40.3024902       36.5596733       13.0362368    
         116           1   18.7032547       18.1540318       18.2395039    
         117           1   28.1526222       40.2906952       15.9673815    
         118           1   38.3030968       29.5908432       27.6489925    
         119           1   19.9499321       17.5542755       20.3971844    
         120           1   7.12021780       15.0452642       34.3785858    
         121           1   5.64829683       40.2096405      0.902703941    
         122           1   42.7356033      0.403296769       20.1277256    
         123           1   29.5025387       10.8303833       36.2191277    
         124           1  0.514561355       31.5970650       11.1550760    
         125           1   26.9277306       34.0015602       33.5483055    
         126           1   15.1732569       22.6358471       26.7120094    
         127           1   33.9562607       34.7710648       6.46028852    
         128           1   24.0995636       34.5059586       9.40007305    
         129           1   5.18289852       39.7706490       14.5410509    
         130           1   24.7393494       11.8654022       15.5890179    
         131           1   35.4061546       24.6686707       26.8921490    
         132           1   11.2680140       39.4502068       42.8696709    
         133           1   14.1238918       2.77201200       35.5105858    
         134           1   8.52047920       21.8390102       35.0595016    
         135           1   33.5085945       8.79737186       11.3479061    
         136           1   35.8533592       27.4814281       15.7052107    
         137           1   12.2061920       6.10154915       6.62333393    
         138           1   27.5245895       30.4432526       30.4196167    
         139           1   8.68414783       41.6949539       26.0443420    
         140           1   10.0833693       16.8890991       14.6970406    
         141           1   41.6200829       38.1362305       18.9952450    
         142           1   19.7554703       30.3400116       27.8692284    
         143           1   37.6002541       40.9722786       1.99104881    
         144           1   31.9883747       23.5992203       23.3181362    
         145           1   33.2198944       23.9322758       35.1158028    
         146           1  0.194944516       38.4189911       37.1819344    
         147           1   14.0266409       30.4990520       8.00293159    
         148           1   20.4826355       27.1438446       8.87015820    
         149           1   17.9485302       25.1690559       30.9978676    
         150           1  0.125621319       33.2876396       16.4542370    
         151           1   15.7369862       27.3683147       20.9555607    
         152           1   37.6691818       34.0439453       30.9374294    
         153           1   6.24864149       13.9292364       25.8403950    
         154           1   37.3461571       2.78510642       41.6623077    
         155           1   22.1741753       28.7360229       39.3884621    
         156           1   23.8539944       15.9983816       6.58447456    
         157           1   33.1585197       18.4726906       33.8479042    
         158           1   20.0068455       11.4613228       35.2951202    
         159           1   30.0135212       5.39646721       22.7796383    
         160           1   18.2657776       5.97846937       35.1569214    
         161           1   10.1655502       13.8886728       18.2001991    
         162           1   41.1439934       4.22786713       33.2765198    
         163           1  0.649777770       25.2839546       20.4997921    
         164           1   41.4082985       31.5673294       17.0970116    
         165           1   11.3602600       39.7393036       15.2181978    
         166           1   38.1085205       7.94095230       6.59059334    
         167           1   3.92268276       37.1476669       35.6731415    
         168           1   10.1928768       30.7473488       6.24462605    
         169           1   31.9221439       9.14798546       33.5861931    
         170           1   16.2362652       8.54792023       18.2135239    
         171           1   19.1135826       4.42194510       6.61318922    
         172           1   28.0638008       32.8065681       36.1836433    
         173           1   35.5224457       40.0441818       23.4150028    
         174           1   25.8211021       20.1406994       14.6482077    
         175           1   7.63878822      0.641710818       28.9308605    
         176           1   13.0549192       25.6351414       28.1301250    
         177           1   7.91185474       16.0954475       41.7257423    
         178           1   3.30094814       21.4636383       1.76165974    
         179           1   2.70204306       34.0870705       9.71021938    
         180           1   21.1460590       32.3511162       31.3186531    
         181           1   40.0590820       21.6378422       12.6999502    
         182           1   18.0290852       30.3389606       1.22368717    
         183           1   34.8995361       8.88982582       6.32628059    
         184           1   6.47271299       18.7347107       34.2324600    
         185           1   39.2568893       3.85809946       36.8644066    
         186           1   38.9024696       21.9193878       17.5018768    
         187           1   39.9535904       4.92517233       6.51824474    
         188           1   15.8475542       35.5816460       25.0949345    
         189           1   42.6759300       39.5387306       10.4480829    
         190           1   39.4766769       25.0465927       26.0096588    
         191           1   10.4956427       34.6025314       30.2490501    
         192           1   36.5922127       17.3777103       14.8280754    
         193           1   31.6021404       34.2005043       7.30918980    
         194           1   38.7885742       5.02572346       42.2577133    
         195           1   41.3130302       27.4557552       6.34302092    
         196           1   30.5207844       5.96031141       7.76212740    
         197           1   27.6058865       3.86226273       17.6294556    
         198           1   36.3168373       2.15088487       32.7602730    
         199           1   2.78901553       33.7517281       21.3375301    
         200           1   20.4713764       42.1607208       22.9986515    
         201           1   5.06753254       42.3352470       14.0396624    
         202           1   3.86229610       9.36790371       22.1788807    
         203           1   16.9284058       16.2848892       36.7948914    
         204           1   14.9035950       30.5808258       22.2154617    
         205           1   10.3510284       11.5061350       39.9626503    
         206           1   9.65707111       36.5474968       10.3026648    
         207           1   11.0543213       3.72410941       17.9518147    
         208           1   36.5024796       26.9004040       42.4896507    
         209           1   32.3159027       21.8732796       33.1228180    
         210           1   26.8586845       17.5849552       6.53738356    
         211           1   23.8706818       7.63584995       2.67026949    
         212           1   7.04659891       19.1522560       12.9365721    
         213           1   29.0252686       1.46218073       34.5389519    
         214           1   7.24317312       27.6542931       23.6984329    
         215           1   8.59367752       15.2131433       31.1081047    
         216           1   36.0124283       22.8085670       39.2924118    
         217           1   33.6951027       8.54881954       36.4528427    
         218           1   29.7922268       39.6961937       40.8355064    
         219           1   32.0432663       39.5067215       38.3731956    
         220           1   40.2386284       33.3198967       14.2827969    
         221           1   11.0617914       3.68005037       35.1171341    
         222           1   28.4089794       15.5126362       22.5739136    
         223           1   34.9410629       22.2570915       27.7318707    
         224           1   26.5242825       3.54300523       11.2663546    
         225           1   16.8745842       39.7132607       41.7423019    
         226           1   14.7700109       8.03221893       42.6061134    
         227           1   18.7478237       29.1985130       3.73696494    
         228           1   18.8239594       25.8165359       19.2751617    
         229           1   17.0332069       42.7435913       39.2896881    
         230           1   33.4391632       38.0818558       32.3069115    
         231           1   23.4328003       13.0846663       12.2772827    
         232           1   26.6138134       25.6668530       28.7563515    
         233           1   42.2351418       17.9594021       2.35201120    
         234           1   2.39972353       32.0204926       3.79257846    
         235           1   27.0885410       5.31202841       4.75965786    
         236           1   32.9924011       6.24552202       10.9204216    
         237           1   39.3185883       27.7138042       30.7873001    
         238           1   5.87381554       9.84024620       33.5637665    
         239           1   16.3013630       28.2268314       11.1656780    
         240           1   18.3376217       11.8088112       41.5086632    
         241           1   41.5670815       39.8797150       7.05270624    
         242           1   5.85060072       9.40651894       7.63125038    
         243           1   25.9007664      0.262078226       13.4886160    
         244           1   27.2969818       37.7961655       7.84984970    
         245           1   15.3484364       32.9833832       29.9212589    
         246           1   14.4191723       31.9325752       4.23960447    
         247           1   12.5267811       25.4890575       24.0897770    
         248           1   3.97923660       30.3903904       42.9943504    
         249           1   2.66552329       3.21175027       11.2514114    
         250           1   34.2355614       33.7430115       10.8863554    
         251           1   35.0680275       29.5938740       2.25124192    
         252           1   39.0819817       18.8606892       31.3143654    
         253           1   14.5616255       12.6171083       21.1565685    
         254           1   6.41131163      0.404380590       8.89994240    
         255           1   7.08803940       38.5817337       9.68227959    
         256           1   31.4911804       23.7011127       7.15209246    
         257           1   33.8095551       19.5714169       1.18909490    
         258           1   27.8429909       19.8152046       26.8401318    
         259           1   15.7901897       37.7707138       23.2202930    
         260           1   37.3641891       24.1397972       8.45051098    
         261           1   12.5819798       33.8299179       21.3475266    
         262           1   12.0547361       7.53242016       19.0722294    
         263           1   35.4976768       42.2578316       21.4863777    
         264           1   30.2341709       36.3143082       42.9265099    
         265           1  0.516872823       40.7485847       41.2050400    
         266           1   39.5104027       42.0873909       28.6438999    
         267           1   13.7149353       14.9885588       38.9515076    
         268           1   9.31337261       2.94215727       13.4316616    
         269           1   26.0749321       34.4284286       1.22498417    
         270           1   25.3495541       2.19395375       34.3702049    
         271           1   30.6860847       40.0724792       10.8889608    
         272           1   24.6060200       2.41227722       31.1457138    
         273           1   34.9749184       29.1754341       24.0719357    
         274           1   21.1085930       3.27848983       5.09927130    
         275           1   13.2068243       1.53069878E-02   28.5418282    
         276           1   21.6343460       28.7044029       23.9808407    
         277           1   9.17851925       30.3378696       3.04202771    
         278           1   9.60486794       10.3060818       33.0552826    
         279           1   18.6932182       12.1596308       11.6685944    
         280           1   5.48951769       16.5283127       22.9136524    
         281           1   10.2060509       40.6758003       9.07364845    
         282           1   39.3155899       11.8424768       7.96158600    
         283           1   18.4669762       15.0012445       12.4947968    
         284           1   42.1331406       12.3899918       22.8653355    
         285           1   41.9161034       16.6925430       13.0758305    
         286           1   39.8122787       13.6145449       11.6672430    
         287           1   24.1519051       10.9438381       34.3825645    
         288           1   27.6607971       30.3488617       10.9312201    
         289           1   40.5663986       8.89580345       19.0712128    
         290           1   42.6091461       20.6918850       16.5165749    
         291           1   28.9593067       25.2894974       1.86749494    
         292           1   27.0433712       31.5976295       20.6061344    
         293           1   28.5854206       3.46384954       3.23283458    
         294           1   16.6443024       42.0401917       12.7150784    
         295           1   26.7494240       6.63408470       29.8521862    
         296           1   22.6040077       7.14450073       9.54937077    
         297           1   39.8639336       37.2252579       8.65257931    
         298           1   28.7804661       27.2964802       7.84816504    
         299           1   16.7524548       36.2634315       33.2912560    
         300           1   22.4391670       43.0866013       21.4746513    
         301           1   29.1145802       11.8876944       15.3382502    
         302           1   4.05690289       29.5336838       34.7456856    
         303           1   15.9158087       10.0902252       5.30221748    
         304           1   8.10250664       39.3268394       40.1190262    
         305           1   33.1493835       33.7557106       29.9598732    
         306           1   6.90494013       11.8086758       30.5874500    
         307           1   5.27627754       32.0675735       28.2059650    
         308           1   11.4351053       20.0608921       26.7757034    
         309           1   14.8128195       8.65822983       30.4478722    
         310           1   18.0342464       15.2642212       24.7548923    
         311           1   7.90870476       37.5900955       37.5740280    
         312           1   35.6739540       24.1468258       41.9472160    
         313           1   33.5500412       20.0310192       6.06154156    
         314           1   35.0389023       9.89337349       8.99728203    
         315           1   13.8289795       6.74787378       21.4966202    
         316           1   41.1194725       12.8880262       1.30305612    
         317           1   9.34682178       3.91224527       23.7778435    
         318           1   32.7080841       39.4289589       24.5823441    
         319           1   10.7518082       15.4961119      0.273656070    
         320           1   15.7013578       20.8155918       14.7092848    
         321           1   9.99433327       5.78085375       3.40734720    
         322           1   27.3853779       36.5445404       36.6495323    
         323           1   26.7111816       20.6672535       4.44418001    
         324           1   14.9471512       18.3056107       10.6063557    
         325           1   34.1923027       16.4866123       32.2245445    
         326           1   8.59400845       32.7657547       36.4908714    
         327           1   1.99077141      0.200206935       33.7365417    
         328           1   38.5503960       14.4347572       7.95684099    
         329           1   17.9767971       38.5568199       27.2835445    
         330           1   5.93703604       16.9686890       40.1964073    
         331           1   19.0221901       41.4906349       27.7358360    
         332           1   38.3819313       42.3246269       4.89749146    
         333           1   22.1478615       24.9616089       16.6684418    
         334           1   20.3110275       31.7312794       1.59940049E-02
         335           1   17.4193935       36.6390495       12.1989822    
         336           1   20.3142452       30.5032597       7.78124857    
         337           1   40.7995453       26.1698456       40.4760742    
         338           1   3.84397507       22.3477402       30.3182583    
         339           1   32.4153404       10.4927101       8.06091785    
         340           1   38.4120789       39.4236908       29.3844776    
         341           1   26.9706917       42.0651436       3.68863368    
         342           1   39.1149750       24.1196423       4.16070795    
         343           1   24.2786655       20.3934612       29.5925274    
         344           1   13.9343710       3.93907619       6.06827450    
         345           1   6.52945662       42.7927132       39.0832443    
         346           1   42.8283424       28.3265209       42.1487961    
         347           1   16.4055119       8.84884167       10.6883631    
         348           1   39.1877289       40.6625328       42.3123856    
         349           1   26.5963383       39.3740807       27.3372440    
         350           1   35.3876610       27.2330570       9.12665558    
         351           1   24.9774284       29.0021572       28.6359081    
         352           1   33.0722275       40.7904053       6.36729622    
         353           1   36.7192154       14.3824005       11.9868040    
         354           1   20.2507381       26.0080967       11.3318300    
         355           1   20.0500374       15.8876629       4.28504896    
         356           1   24.0662060       33.5990791       17.5057812    
         357           1   29.3433895       40.6986504       1.31281567    
         358           1   14.7576313       30.0406570       32.2283630    
         359           1   23.4643250       5.36629629       38.8404541    
         360           1   13.1982088       2.04146934       2.44711876    
         361           1   13.2215090       15.9014492       8.69959354    
         362           1   10.3752422       32.0685272       27.9727879    
         363           1   23.7438622       11.7603588       9.98941231    
         364           1   17.9609165       9.97455788       38.4023552    
         365           1  0.805279851       42.9603958       30.5010071    
         366           1   17.0345306       24.7754135       1.96374404    
         367           1   33.0447044       2.76746631       4.73397493    
         368           1  0.674014747       37.4348488       30.0214481    
         369           1   42.1205864       19.5786858       38.7972794    
         370           1   32.8473396       27.8302212       20.6515484    
         371           1   24.6428394       36.8165512       3.03350735    
         372           1   39.1249313       24.6532135       30.0788422    
         373           1   34.9212990       3.06324291       9.63313198    
         374           1   17.7582741       2.67615472E-03   31.9703350    
         375           1   5.75678730       31.6309910       10.8027267    
         376           1  0.421387762       7.39700460       2.33837366    
         377           1   39.7650681       16.7947712       7.30657387    
         378           1   6.06580877       43.0424919       24.2050171    
         379           1   37.7401695       15.9223299       29.1518211    
         380           1   35.9539185       1.33797455       28.5046272    
         381           1   30.3257942       19.5350761       10.2059965    
         382           1   16.1744003       11.9313669       39.3407211    
         383           1   28.2125053       29.9147816       3.41829705    
         384           1   24.2123871       9.86184025       1.39148223    
         385           1   20.5794487       35.1281052       24.6783485    
         386           1   7.61595583       8.78676605       39.2347031    